LAMMPS (11 Aug 2017)
Created orthogonal box = (0 0 0) to (36.8026 36.8026 36.8026)
  1 by 1 by 1 MPI processor grid
Created 1071 atoms
Created 1071 atoms
Created 1071 atoms
Created 1071 atoms
Created 1071 atoms
Created 1071 atoms
Created 1071 atoms
Created 1071 atoms
Created 1071 atoms
Created 1071 atoms
Created 1071 atoms
Created 1071 atoms
Created 1071 atoms
Created 1071 atoms
Created 1071 atoms
Created 1071 atoms
Created 1071 atoms
Created 1071 atoms
Created 1071 atoms
Created 1071 atoms
Created 1071 atoms
Created 1071 atoms
Created 1071 atoms
Created 1071 atoms
Created 1071 atoms
Created 1071 atoms
Created 1071 atoms
Created 1071 atoms
Created 1071 atoms
Created 1071 atoms
Created 1071 atoms
Created 1071 atoms
Created 1071 atoms
Created 1071 atoms
Created 1071 atoms
Created 1071 atoms
Created 1071 atoms
Created 1071 atoms
Created 1071 atoms
Created 1071 atoms
1071 atoms in group 1
1071 atoms in group 2
1071 atoms in group 3
1071 atoms in group 4
1071 atoms in group 5
1071 atoms in group 6
1071 atoms in group 7
1071 atoms in group 8
1071 atoms in group 9
1071 atoms in group 10
1071 atoms in group 11
1071 atoms in group 12
1071 atoms in group 13
1071 atoms in group 14
1071 atoms in group 15
1071 atoms in group 16
1071 atoms in group 17
1071 atoms in group 18
1071 atoms in group 19
1071 atoms in group 20
1071 atoms in group 21
1071 atoms in group 22
1071 atoms in group 23
1071 atoms in group 24
1071 atoms in group 25
1071 atoms in group 26
1071 atoms in group 27
1071 atoms in group 28
1071 atoms in group 29
1071 atoms in group 30
1071 atoms in group 31
WARNING: Using 'neigh_modify every 1 delay 0 check yes' setting during minimization (../min.cpp:168)
Neighbor list info ...
  update every 1 steps, delay 0 steps, check yes
  max neighbors/atom: 2000, page size: 100000
  master list distance cutoff = 5
  ghost atom cutoff = 5
  binsize = 2.5, bins = 15 15 15
  32 neighbor lists, perpetual/occasional/extra = 1 31 0
  (1) pair dpd, perpetual
      attributes: half, newton on
      pair build: half/bin/atomonly/newton
      stencil: half/bin/3d/newton
      bin: standard
  (2) compute group/group, occasional, copy from (1)
      attributes: half, newton on
      pair build: copy
      stencil: none
      bin: none
  (3) compute group/group, occasional, copy from (1)
      attributes: half, newton on
      pair build: copy
      stencil: none
      bin: none
  (4) compute group/group, occasional, copy from (1)
      attributes: half, newton on
      pair build: copy
      stencil: none
      bin: none
  (5) compute group/group, occasional, copy from (1)
      attributes: half, newton on
      pair build: copy
      stencil: none
      bin: none
  (6) compute group/group, occasional, copy from (1)
      attributes: half, newton on
      pair build: copy
      stencil: none
      bin: none
  (7) compute group/group, occasional, copy from (1)
      attributes: half, newton on
      pair build: copy
      stencil: none
      bin: none
  (8) compute group/group, occasional, copy from (1)
      attributes: half, newton on
      pair build: copy
      stencil: none
      bin: none
  (9) compute group/group, occasional, copy from (1)
      attributes: half, newton on
      pair build: copy
      stencil: none
      bin: none
  (10) compute group/group, occasional, copy from (1)
      attributes: half, newton on
      pair build: copy
      stencil: none
      bin: none
  (11) compute group/group, occasional, copy from (1)
      attributes: half, newton on
      pair build: copy
      stencil: none
      bin: none
  (12) compute group/group, occasional, copy from (1)
      attributes: half, newton on
      pair build: copy
      stencil: none
      bin: none
  (13) compute group/group, occasional, copy from (1)
      attributes: half, newton on
      pair build: copy
      stencil: none
      bin: none
  (14) compute group/group, occasional, copy from (1)
      attributes: half, newton on
      pair build: copy
      stencil: none
      bin: none
  (15) compute group/group, occasional, copy from (1)
      attributes: half, newton on
LAMMPS (11 Aug 2017)
Created orthogonal box = (0 0 0) to (36.8026 36.8026 36.8026)
  1 by 1 by 1 MPI processor grid
Created 1071 atoms
Created 1071 atoms
Created 1071 atoms
Created 1071 atoms
Created 1071 atoms
Created 1071 atoms
Created 1071 atoms
Created 1071 atoms
Created 1071 atoms
Created 1071 atoms
Created 1071 atoms
Created 1071 atoms
Created 1071 atoms
Created 1071 atoms
Created 1071 atoms
Created 1071 atoms
Created 1071 atoms
Created 1071 atoms
Created 1071 atoms
Created 1071 atoms
Created 1071 atoms
Created 1071 atoms
Created 1071 atoms
Created 1071 atoms
Created 1071 atoms
Created 1071 atoms
Created 1071 atoms
Created 1071 atoms
Created 1071 atoms
Created 1071 atoms
Created 1071 atoms
Created 1071 atoms
Created 1071 atoms
Created 1071 atoms
Created 1071 atoms
Created 1071 atoms
Created 1071 atoms
Created 1071 atoms
Created 1071 atoms
Created 1071 atoms
1071 atoms in group 1
1071 atoms in group 2
1071 atoms in group 3
1071 atoms in group 4
1071 atoms in group 5
1071 atoms in group 6
1071 atoms in group 7
1071 atoms in group 8
1071 atoms in group 9
1071 atoms in group 10
1071 atoms in group 11
1071 atoms in group 12
1071 atoms in group 13
1071 atoms in group 14
1071 atoms in group 15
1071 atoms in group 16
1071 atoms in group 17
1071 atoms in group 18
1071 atoms in group 19
1071 atoms in group 20
1071 atoms in group 21
1071 atoms in group 22
1071 atoms in group 23
1071 atoms in group 24
1071 atoms in group 25
1071 atoms in group 26
1071 atoms in group 27
1071 atoms in group 28
1071 atoms in group 29
1071 atoms in group 30
1071 atoms in group 31
WARNING: Using 'neigh_modify every 1 delay 0 check yes' setting during minimization (../min.cpp:168)
Neighbor list info ...
  update every 1 steps, delay 0 steps, check yes
  max neighbors/atom: 2000, page size: 100000
  master list distance cutoff = 5
  ghost atom cutoff = 5
  binsize = 2.5, bins = 15 15 15
  32 neighbor lists, perpetual/occasional/extra = 1 31 0
  (1) pair dpd, perpetual
      attributes: half, newton on
      pair build: half/bin/atomonly/newton
      stencil: half/bin/3d/newton
      bin: standard
  (2) compute group/group, occasional, copy from (1)
      attributes: half, newton on
      pair build: copy
      stencil: none
      bin: none
  (3) compute group/group, occasional, copy from (1)
      attributes: half, newton on
      pair build: copy
      stencil: none
      bin: none
  (4) compute group/group, occasional, copy from (1)
      attributes: half, newton on
      pair build: copy
      stencil: none
      bin: none
  (5) compute group/group, occasional, copy from (1)
      attributes: half, newton on
      pair build: copy
      stencil: none
      bin: none
  (6) compute group/group, occasional, copy from (1)
      attributes: half, newton on
      pair build: copy
      stencil: none
      bin: none
  (7) compute group/group, occasional, copy from (1)
      attributes: half, newton on
      pair build: copy
      stencil: none
      bin: none
  (8) compute group/group, occasional, copy from (1)
      attributes: half, newton on
      pair build: copy
      stencil: none
      bin: none
  (9) compute group/group, occasional, copy from (1)
      attributes: half, newton on
      pair build: copy
      stencil: none
      bin: none
  (10) compute group/group, occasional, copy from (1)
      attributes: half, newton on
      pair build: copy
      stencil: none
      bin: none
  (11) compute group/group, occasional, copy from (1)
      attributes: half, newton on
      pair build: copy
      stencil: none
      bin: none
  (12) compute group/group, occasional, copy from (1)
      attributes: half, newton on
      pair build: copy
      stencil: none
      bin: none
  (13) compute group/group, occasional, copy from (1)
      attributes: half, newton on
      pair build: copy
      stencil: none
      bin: none
  (14) compute group/group, occasional, copy from (1)
      attributes: half, newton on
      pair build: copy
      stencil: none
      bin: none
  (15) compute group/group, occasional, copy from (1)
      attributes: half, newton on
LAMMPS (11 Aug 2017)
Created orthogonal box = (0 0 0) to (36.8026 36.8026 36.8026)
  1 by 1 by 1 MPI processor grid
Created 1071 atoms
Created 1071 atoms
Created 1071 atoms
Created 1071 atoms
Created 1071 atoms
Created 1071 atoms
Created 1071 atoms
Created 1071 atoms
Created 1071 atoms
Created 1071 atoms
Created 1071 atoms
Created 1071 atoms
Created 1071 atoms
Created 1071 atoms
Created 1071 atoms
Created 1071 atoms
Created 1071 atoms
Created 1071 atoms
Created 1071 atoms
Created 1071 atoms
Created 1071 atoms
Created 1071 atoms
Created 1071 atoms
Created 1071 atoms
Created 1071 atoms
Created 1071 atoms
Created 1071 atoms
Created 1071 atoms
Created 1071 atoms
Created 1071 atoms
Created 1071 atoms
Created 1071 atoms
Created 1071 atoms
Created 1071 atoms
Created 1071 atoms
Created 1071 atoms
Created 1071 atoms
Created 1071 atoms
Created 1071 atoms
Created 1071 atoms
1071 atoms in group 1
1071 atoms in group 2
1071 atoms in group 3
1071 atoms in group 4
1071 atoms in group 5
1071 atoms in group 6
1071 atoms in group 7
1071 atoms in group 8
1071 atoms in group 9
1071 atoms in group 10
1071 atoms in group 11
1071 atoms in group 12
1071 atoms in group 13
1071 atoms in group 14
1071 atoms in group 15
1071 atoms in group 16
1071 atoms in group 17
1071 atoms in group 18
1071 atoms in group 19
1071 atoms in group 20
1071 atoms in group 21
1071 atoms in group 22
1071 atoms in group 23
1071 atoms in group 24
1071 atoms in group 25
1071 atoms in group 26
1071 atoms in group 27
1071 atoms in group 28
1071 atoms in group 29
1071 atoms in group 30
1071 atoms in group 31
WARNING: Using 'neigh_modify every 1 delay 0 check yes' setting during minimization (../min.cpp:168)
Neighbor list info ...
  update every 1 steps, delay 0 steps, check yes
  max neighbors/atom: 2000, page size: 100000
  master list distance cutoff = 5
  ghost atom cutoff = 5
  binsize = 2.5, bins = 15 15 15
  32 neighbor lists, perpetual/occasional/extra = 1 31 0
  (1) pair dpd, perpetual
      attributes: half, newton on
      pair build: half/bin/atomonly/newton
      stencil: half/bin/3d/newton
      bin: standard
  (2) compute group/group, occasional, copy from (1)
      attributes: half, newton on
      pair build: copy
      stencil: none
      bin: none
  (3) compute group/group, occasional, copy from (1)
      attributes: half, newton on
      pair build: copy
      stencil: none
      bin: none
  (4) compute group/group, occasional, copy from (1)
      attributes: half, newton on
      pair build: copy
      stencil: none
      bin: none
  (5) compute group/group, occasional, copy from (1)
      attributes: half, newton on
      pair build: copy
      stencil: none
      bin: none
  (6) compute group/group, occasional, copy from (1)
      attributes: half, newton on
      pair build: copy
      stencil: none
      bin: none
  (7) compute group/group, occasional, copy from (1)
      attributes: half, newton on
      pair build: copy
      stencil: none
      bin: none
  (8) compute group/group, occasional, copy from (1)
      attributes: half, newton on
      pair build: copy
      stencil: none
      bin: none
  (9) compute group/group, occasional, copy from (1)
      attributes: half, newton on
      pair build: copy
      stencil: none
      bin: none
  (10) compute group/group, occasional, copy from (1)
      attributes: half, newton on
      pair build: copy
      stencil: none
      bin: none
  (11) compute group/group, occasional, copy from (1)
      attributes: half, newton on
      pair build: copy
      stencil: none
      bin: none
  (12) compute group/group, occasional, copy from (1)
      attributes: half, newton on
      pair build: copy
      stencil: none
      bin: none
  (13) compute group/group, occasional, copy from (1)
      attributes: half, newton on
      pair build: copy
      stencil: none
      bin: none
  (14) compute group/group, occasional, copy from (1)
      attributes: half, newton on
      pair build: copy
      stencil: none
      bin: none
  (15) compute group/group, occasional, copy from (1)
      attributes: half, newton on
LAMMPS (11 Aug 2017)
Created orthogonal box = (0 0 0) to (36.8026 36.8026 36.8026)
  1 by 1 by 1 MPI processor grid
Created 1071 atoms
Created 1071 atoms
Created 1071 atoms
Created 1071 atoms
Created 1071 atoms
Created 1071 atoms
Created 1071 atoms
Created 1071 atoms
Created 1071 atoms
Created 1071 atoms
Created 1071 atoms
Created 1071 atoms
Created 1071 atoms
Created 1071 atoms
Created 1071 atoms
Created 1071 atoms
Created 1071 atoms
Created 1071 atoms
Created 1071 atoms
Created 1071 atoms
Created 1071 atoms
Created 1071 atoms
Created 1071 atoms
Created 1071 atoms
Created 1071 atoms
Created 1071 atoms
Created 1071 atoms
Created 1071 atoms
Created 1071 atoms
Created 1071 atoms
Created 1071 atoms
Created 1071 atoms
Created 1071 atoms
Created 1071 atoms
Created 1071 atoms
Created 1071 atoms
Created 1071 atoms
Created 1071 atoms
Created 1071 atoms
Created 1071 atoms
1071 atoms in group 1
1071 atoms in group 2
1071 atoms in group 3
1071 atoms in group 4
1071 atoms in group 5
1071 atoms in group 6
1071 atoms in group 7
1071 atoms in group 8
1071 atoms in group 9
1071 atoms in group 10
1071 atoms in group 11
1071 atoms in group 12
1071 atoms in group 13
1071 atoms in group 14
1071 atoms in group 15
1071 atoms in group 16
1071 atoms in group 17
1071 atoms in group 18
1071 atoms in group 19
1071 atoms in group 20
1071 atoms in group 21
1071 atoms in group 22
1071 atoms in group 23
1071 atoms in group 24
1071 atoms in group 25
1071 atoms in group 26
1071 atoms in group 27
1071 atoms in group 28
1071 atoms in group 29
1071 atoms in group 30
1071 atoms in group 31
WARNING: Using 'neigh_modify every 1 delay 0 check yes' setting during minimization (../min.cpp:168)
Neighbor list info ...
  update every 1 steps, delay 0 steps, check yes
  max neighbors/atom: 2000, page size: 100000
  master list distance cutoff = 5
  ghost atom cutoff = 5
  binsize = 2.5, bins = 15 15 15
  32 neighbor lists, perpetual/occasional/extra = 1 31 0
  (1) pair dpd, perpetual
      attributes: half, newton on
      pair build: half/bin/atomonly/newton
      stencil: half/bin/3d/newton
      bin: standard
  (2) compute group/group, occasional, copy from (1)
      attributes: half, newton on
      pair build: copy
      stencil: none
      bin: none
  (3) compute group/group, occasional, copy from (1)
      attributes: half, newton on
      pair build: copy
      stencil: none
      bin: none
  (4) compute group/group, occasional, copy from (1)
      attributes: half, newton on
      pair build: copy
      stencil: none
      bin: none
  (5) compute group/group, occasional, copy from (1)
      attributes: half, newton on
      pair build: copy
      stencil: none
      bin: none
  (6) compute group/group, occasional, copy from (1)
      attributes: half, newton on
      pair build: copy
      stencil: none
      bin: none
  (7) compute group/group, occasional, copy from (1)
      attributes: half, newton on
      pair build: copy
      stencil: none
      bin: none
  (8) compute group/group, occasional, copy from (1)
      attributes: half, newton on
      pair build: copy
      stencil: none
      bin: none
  (9) compute group/group, occasional, copy from (1)
      attributes: half, newton on
      pair build: copy
      stencil: none
      bin: none
  (10) compute group/group, occasional, copy from (1)
      attributes: half, newton on
      pair build: copy
      stencil: none
      bin: none
  (11) compute group/group, occasional, copy from (1)
      attributes: half, newton on
      pair build: copy
      stencil: none
      bin: none
  (12) compute group/group, occasional, copy from (1)
      attributes: half, newton on
      pair build: copy
      stencil: none
      bin: none
  (13) compute group/group, occasional, copy from (1)
      attributes: half, newton on
      pair build: copy
      stencil: none
      bin: none
  (14) compute group/group, occasional, copy from (1)
      attributes: half, newton on
      pair build: copy
      stencil: none
      bin: none
  (15) compute group/group, occasional, copy from (1)
      attributes: half, newton on
      pair build: copy
      stencil: none
      bin: none
  (16) compute group/group, occasional, copy from (1)
      attributes: half, newton on
      pair build: copy
      stencil: none
      bin: none
  (17) compute group/group, occasional, copy from (1)
      attributes: half, newton on
      pair build: copy
      stencil: none
      bin: none
  (18) compute group/group, occasional, copy from (1)
      attributes: half, newton on
      pair build: copy
      stencil: none
      bin: none
  (19) compute group/group, occasional, copy from (1)
      attributes: half, newton on
      pair build: copy
      stencil: none
      bin: none
  (20) compute group/group, occasional, copy from (1)
      attributes: half, newton on
      pair build: copy
      stencil: none
      bin: none
  (21) compute group/group, occasional, copy from (1)
      attributes: half, newton on
      pair build: copy
      stencil: none
      bin: none
  (22) compute group/group, occasional, copy from (1)
      attributes: half, newton on
      pair build: copy
      stencil: none
      bin: none
  (23) compute group/group, occasional, copy from (1)
      attributes: half, newton on
      pair build: copy
      stencil: none
      bin: none
  (24) compute group/group, occasional, copy from (1)
      attributes: half, newton on
      pair build: copy
      stencil: none
      bin: none
  (25) compute group/group, occasional, copy from (1)
      attributes: half, newton on
      pair build: copy
      stencil: none
      bin: none
  (26) compute group/group, occasional, copy from (1)
      attributes: half, newton on
      pair build: copy
      stencil: none
      bin: none
  (27) compute group/group, occasional, copy from (1)
      attributes: half, newton on
      pair build: copy
      stencil: none
      bin: none
  (28) compute group/group, occasional, copy from (1)
      attributes: half, newton on
      pair build: copy
      stencil: none
      bin: none
  (29) compute group/group, occasional, copy from (1)
      attributes: half, newton on
      pair build: copy
      stencil: none
      bin: none
  (30) compute group/group, occasional, copy from (1)
      attributes: half, newton on
      pair build: copy
      stencil: none
      bin: none
  (31) compute group/group, occasional, copy from (1)
      attributes: half, newton on
      pair build: copy
      stencil: none
      bin: none
  (32) compute group/group, occasional, copy from (1)
      attributes: half, newton on
      pair build: copy
      stencil: none
      bin: none
Setting up cg style minimization ...
  Unit style    : lj
  Current step  : 0
Per MPI rank memory allocation (min/avg/max) = 37.05 | 37.05 | 37.05 Mbytes
Step c_1 c_2 c_3 c_4 c_5 c_6 c_7 c_8 c_9 c_10 c_11 c_12 c_13 c_14 c_15 c_16 c_17 c_18 c_19 c_20 c_21 c_22 c_23 c_24 c_25 c_26 c_27 c_28 c_29 c_30 c_31 
       0 0.0048737479 0.0043317711 0.0046716417 0.0050323678  0.004472306 0.0045775229 0.0045112683 0.0045229974 0.0044625769 0.0044553401 0.0045435595 0.0040215392 0.0045638103 0.0041493725 0.0046248063 0.0049489453 0.0044313848 0.0043613971 0.0049028196 0.0042395189 0.0047184251 0.0046228085 0.0048140641 0.0041658836 0.0049183831 0.0045151283  0.004549668 0.0044297855 0.0043929239 0.0041572867 0.0046842302 
     195            0 1.7169214e-21 1.8505067e-21 6.4735023e-26 7.0489612e-23 1.4987693e-21 1.3000844e-21 2.5918198e-22            0            0 7.1835279e-20 9.0583703e-22 4.9838957e-22 2.0800304e-22            0 7.224373e-21 3.9774078e-22 5.5593333e-20 3.2532094e-22 5.307402e-21 2.8756856e-22 7.5317356e-21 5.8818742e-21            0 2.5776128e-21 8.874546e-22 5.0920058e-23 6.0082736e-22 4.3273429e-23 4.7984709e-24  6.58894e-22 
Loop time of 6.40719 on 1 procs for 195 steps with 42840 atoms

100.1% CPU use with 1 MPI tasks x no OpenMP threads

Minimization stats:
  Stopping criterion = energy tolerance
  Energy initial, next-to-last, final = 
        0.269548934038  1.87202284345e-18  1.42882814994e-18
  Force two-norm initial, final = 159.297 1.24393e-07
      pair build: copy
      stencil: none
      bin: none
  (16) compute group/group, occasional, copy from (1)
      attributes: half, newton on
      pair build: copy
      stencil: none
      bin: none
  (17) compute group/group, occasional, copy from (1)
      attributes: half, newton on
      pair build: copy
      stencil: none
      bin: none
  (18) compute group/group, occasional, copy from (1)
      attributes: half, newton on
      pair build: copy
      stencil: none
      bin: none
  (19) compute group/group, occasional, copy from (1)
      attributes: half, newton on
      pair build: copy
      stencil: none
      bin: none
  (20) compute group/group, occasional, copy from (1)
      attributes: half, newton on
      pair build: copy
      stencil: none
      bin: none
  (21) compute group/group, occasional, copy from (1)
      attributes: half, newton on
      pair build: copy
      stencil: none
      bin: none
  (22) compute group/group, occasional, copy from (1)
      attributes: half, newton on
      pair build: copy
      stencil: none
      bin: none
  (23) compute group/group, occasional, copy from (1)
      attributes: half, newton on
      pair build: copy
      stencil: none
      bin: none
  (24) compute group/group, occasional, copy from (1)
      attributes: half, newton on
      pair build: copy
      stencil: none
      bin: none
  (25) compute group/group, occasional, copy from (1)
      attributes: half, newton on
      pair build: copy
      stencil: none
      bin: none
  (26) compute group/group, occasional, copy from (1)
      attributes: half, newton on
      pair build: copy
      stencil: none
      bin: none
  (27) compute group/group, occasional, copy from (1)
      attributes: half, newton on
      pair build: copy
      stencil: none
      bin: none
  (28) compute group/group, occasional, copy from (1)
      attributes: half, newton on
      pair build: copy
      stencil: none
      bin: none
  (29) compute group/group, occasional, copy from (1)
      attributes: half, newton on
      pair build: copy
      stencil: none
      bin: none
  (30) compute group/group, occasional, copy from (1)
      attributes: half, newton on
      pair build: copy
      stencil: none
      bin: none
  (31) compute group/group, occasional, copy from (1)
      attributes: half, newton on
      pair build: copy
      stencil: none
      bin: none
  (32) compute group/group, occasional, copy from (1)
      attributes: half, newton on
      pair build: copy
      stencil: none
      bin: none
Setting up cg style minimization ...
  Unit style    : lj
  Current step  : 0
Per MPI rank memory allocation (min/avg/max) = 37.05 | 37.05 | 37.05 Mbytes
Step c_1 c_2 c_3 c_4 c_5 c_6 c_7 c_8 c_9 c_10 c_11 c_12 c_13 c_14 c_15 c_16 c_17 c_18 c_19 c_20 c_21 c_22 c_23 c_24 c_25 c_26 c_27 c_28 c_29 c_30 c_31 
       0 0.0048737479 0.0043317711 0.0046716417 0.0050323678  0.004472306 0.0045775229 0.0045112683 0.0045229974 0.0044625769 0.0044553401 0.0045435595 0.0040215392 0.0045638103 0.0041493725 0.0046248063 0.0049489453 0.0044313848 0.0043613971 0.0049028196 0.0042395189 0.0047184251 0.0046228085 0.0048140641 0.0041658836 0.0049183831 0.0045151283  0.004549668 0.0044297855 0.0043929239 0.0041572867 0.0046842302 
     195            0 1.7169214e-21 1.8505067e-21 6.4735023e-26 7.0489612e-23 1.4987693e-21 1.3000844e-21 2.5918198e-22            0            0 7.1835279e-20 9.0583703e-22 4.9838957e-22 2.0800304e-22            0 7.224373e-21 3.9774078e-22 5.5593333e-20 3.2532094e-22 5.307402e-21 2.8756856e-22 7.5317356e-21 5.8818742e-21            0 2.5776128e-21 8.874546e-22 5.0920058e-23 6.0082736e-22 4.3273429e-23 4.7984709e-24  6.58894e-22 
Loop time of 6.42977 on 1 procs for 195 steps with 42840 atoms

100.0% CPU use with 1 MPI tasks x no OpenMP threads

Minimization stats:
  Stopping criterion = energy tolerance
  Energy initial, next-to-last, final = 
        0.269548934038  1.87202284345e-18  1.42882814994e-18
  Force two-norm initial, final = 159.297 1.24393e-07
      pair build: copy
      stencil: none
      bin: none
  (16) compute group/group, occasional, copy from (1)
      attributes: half, newton on
      pair build: copy
      stencil: none
      bin: none
  (17) compute group/group, occasional, copy from (1)
      attributes: half, newton on
      pair build: copy
      stencil: none
      bin: none
  (18) compute group/group, occasional, copy from (1)
      attributes: half, newton on
      pair build: copy
      stencil: none
      bin: none
  (19) compute group/group, occasional, copy from (1)
      attributes: half, newton on
      pair build: copy
      stencil: none
      bin: none
  (20) compute group/group, occasional, copy from (1)
      attributes: half, newton on
      pair build: copy
      stencil: none
      bin: none
  (21) compute group/group, occasional, copy from (1)
      attributes: half, newton on
      pair build: copy
      stencil: none
      bin: none
  (22) compute group/group, occasional, copy from (1)
      attributes: half, newton on
      pair build: copy
      stencil: none
      bin: none
  (23) compute group/group, occasional, copy from (1)
      attributes: half, newton on
      pair build: copy
      stencil: none
      bin: none
  (24) compute group/group, occasional, copy from (1)
      attributes: half, newton on
      pair build: copy
      stencil: none
      bin: none
  (25) compute group/group, occasional, copy from (1)
      attributes: half, newton on
      pair build: copy
      stencil: none
      bin: none
  (26) compute group/group, occasional, copy from (1)
      attributes: half, newton on
      pair build: copy
      stencil: none
      bin: none
  (27) compute group/group, occasional, copy from (1)
      attributes: half, newton on
      pair build: copy
      stencil: none
      bin: none
  (28) compute group/group, occasional, copy from (1)
      attributes: half, newton on
      pair build: copy
      stencil: none
      bin: none
  (29) compute group/group, occasional, copy from (1)
      attributes: half, newton on
      pair build: copy
      stencil: none
      bin: none
  (30) compute group/group, occasional, copy from (1)
      attributes: half, newton on
      pair build: copy
      stencil: none
      bin: none
  (31) compute group/group, occasional, copy from (1)
      attributes: half, newton on
      pair build: copy
      stencil: none
      bin: none
  (32) compute group/group, occasional, copy from (1)
      attributes: half, newton on
      pair build: copy
      stencil: none
      bin: none
Setting up cg style minimization ...
  Unit style    : lj
  Current step  : 0
Per MPI rank memory allocation (min/avg/max) = 37.05 | 37.05 | 37.05 Mbytes
Step c_1 c_2 c_3 c_4 c_5 c_6 c_7 c_8 c_9 c_10 c_11 c_12 c_13 c_14 c_15 c_16 c_17 c_18 c_19 c_20 c_21 c_22 c_23 c_24 c_25 c_26 c_27 c_28 c_29 c_30 c_31 
       0 0.0048737479 0.0043317711 0.0046716417 0.0050323678  0.004472306 0.0045775229 0.0045112683 0.0045229974 0.0044625769 0.0044553401 0.0045435595 0.0040215392 0.0045638103 0.0041493725 0.0046248063 0.0049489453 0.0044313848 0.0043613971 0.0049028196 0.0042395189 0.0047184251 0.0046228085 0.0048140641 0.0041658836 0.0049183831 0.0045151283  0.004549668 0.0044297855 0.0043929239 0.0041572867 0.0046842302 
     195            0 1.7169214e-21 1.8505067e-21 6.4735023e-26 7.0489612e-23 1.4987693e-21 1.3000844e-21 2.5918198e-22            0            0 7.1835279e-20 9.0583703e-22 4.9838957e-22 2.0800304e-22            0 7.224373e-21 3.9774078e-22 5.5593333e-20 3.2532094e-22 5.307402e-21 2.8756856e-22 7.5317356e-21 5.8818742e-21            0 2.5776128e-21 8.874546e-22 5.0920058e-23 6.0082736e-22 4.3273429e-23 4.7984709e-24  6.58894e-22 
Loop time of 6.84606 on 1 procs for 195 steps with 42840 atoms

100.0% CPU use with 1 MPI tasks x no OpenMP threads

Minimization stats:
  Stopping criterion = energy tolerance
  Energy initial, next-to-last, final = 
        0.269548934038  1.87202284345e-18  1.42882814994e-18
  Force two-norm initial, final = 159.297 1.24393e-07
      pair build: copy
      stencil: none
      bin: none
  (16) compute group/group, occasional, copy from (1)
      attributes: half, newton on
      pair build: copy
      stencil: none
      bin: none
  (17) compute group/group, occasional, copy from (1)
      attributes: half, newton on
      pair build: copy
      stencil: none
      bin: none
  (18) compute group/group, occasional, copy from (1)
      attributes: half, newton on
      pair build: copy
      stencil: none
      bin: none
  (19) compute group/group, occasional, copy from (1)
      attributes: half, newton on
      pair build: copy
      stencil: none
      bin: none
  (20) compute group/group, occasional, copy from (1)
      attributes: half, newton on
      pair build: copy
      stencil: none
      bin: none
  (21) compute group/group, occasional, copy from (1)
      attributes: half, newton on
      pair build: copy
      stencil: none
      bin: none
  (22) compute group/group, occasional, copy from (1)
      attributes: half, newton on
      pair build: copy
      stencil: none
      bin: none
  (23) compute group/group, occasional, copy from (1)
      attributes: half, newton on
      pair build: copy
      stencil: none
      bin: none
  (24) compute group/group, occasional, copy from (1)
      attributes: half, newton on
      pair build: copy
      stencil: none
      bin: none
  (25) compute group/group, occasional, copy from (1)
      attributes: half, newton on
      pair build: copy
      stencil: none
      bin: none
  (26) compute group/group, occasional, copy from (1)
      attributes: half, newton on
      pair build: copy
      stencil: none
      bin: none
  (27) compute group/group, occasional, copy from (1)
      attributes: half, newton on
      pair build: copy
      stencil: none
      bin: none
  (28) compute group/group, occasional, copy from (1)
      attributes: half, newton on
      pair build: copy
      stencil: none
      bin: none
  (29) compute group/group, occasional, copy from (1)
      attributes: half, newton on
      pair build: copy
      stencil: none
      bin: none
  (30) compute group/group, occasional, copy from (1)
      attributes: half, newton on
      pair build: copy
      stencil: none
      bin: none
  (31) compute group/group, occasional, copy from (1)
      attributes: half, newton on
      pair build: copy
      stencil: none
      bin: none
  (32) compute group/group, occasional, copy from (1)
      attributes: half, newton on
      pair build: copy
      stencil: none
      bin: none
Setting up cg style minimization ...
  Unit style    : lj
  Current step  : 0
Per MPI rank memory allocation (min/avg/max) = 37.05 | 37.05 | 37.05 Mbytes
Step c_1 c_2 c_3 c_4 c_5 c_6 c_7 c_8 c_9 c_10 c_11 c_12 c_13 c_14 c_15 c_16 c_17 c_18 c_19 c_20 c_21 c_22 c_23 c_24 c_25 c_26 c_27 c_28 c_29 c_30 c_31 
       0 0.0048737479 0.0043317711 0.0046716417 0.0050323678  0.004472306 0.0045775229 0.0045112683 0.0045229974 0.0044625769 0.0044553401 0.0045435595 0.0040215392 0.0045638103 0.0041493725 0.0046248063 0.0049489453 0.0044313848 0.0043613971 0.0049028196 0.0042395189 0.0047184251 0.0046228085 0.0048140641 0.0041658836 0.0049183831 0.0045151283  0.004549668 0.0044297855 0.0043929239 0.0041572867 0.0046842302 
     195            0 1.7169214e-21 1.8505067e-21 6.4735023e-26 7.0489612e-23 1.4987693e-21 1.3000844e-21 2.5918198e-22            0            0 7.1835279e-20 9.0583703e-22 4.9838957e-22 2.0800304e-22            0 7.224373e-21 3.9774078e-22 5.5593333e-20 3.2532094e-22 5.307402e-21 2.8756856e-22 7.5317356e-21 5.8818742e-21            0 2.5776128e-21 8.874546e-22 5.0920058e-23 6.0082736e-22 4.3273429e-23 4.7984709e-24  6.58894e-22 
Loop time of 6.84564 on 1 procs for 195 steps with 42840 atoms

100.0% CPU use with 1 MPI tasks x no OpenMP threads

Minimization stats:
  Stopping criterion = energy tolerance
  Energy initial, next-to-last, final = 
        0.269548934038  1.87202284345e-18  1.42882814994e-18
  Force two-norm initial, final = 159.297 1.24393e-07
  Force max component initial, final = 2.63591 3.6028e-08
  Final line search alpha, max atom move = 1 3.6028e-08
  Iterations, force evaluations = 195 303

MPI task timing breakdown:
Section |  min time  |  avg time  |  max time  |%varavg| %total
---------------------------------------------------------------
Pair    | 4.6307     | 4.6307     | 4.6307     |   0.0 | 72.02
Neigh   | 1.0914     | 1.0914     | 1.0914     |   0.0 | 16.97
Comm    | 0.2964     | 0.2964     | 0.2964     |   0.0 |  4.61
Output  | 0          | 0          | 0          |   0.0 |  0.00
Modify  | 0          | 0          | 0          |   0.0 |  0.00
Other   |            | 0.4113     |            |       |  6.40

Nlocal:    42840 ave 42840 max 42840 min
Histogram: 1 0 0 0 0 0 0 0 0 0
Nghost:    45639 ave 45639 max 45639 min
Histogram: 1 0 0 0 0 0 0 0 0 0
Neighs:    2.26607e+06 ave 2.26607e+06 max 2.26607e+06 min
Histogram: 1 0 0 0 0 0 0 0 0 0

Total # of neighbors = 2266073
Ave neighs/atom = 52.8962
Neighbor list builds = 5
Dangerous builds = 0
WARNING: Using 'neigh_modify every 1 delay 0 check yes' setting during minimization (../min.cpp:168)
Setting up hftn style minimization ...
  Unit style    : lj
  Current step  : 195
Per MPI rank memory allocation (min/avg/max) = 329.9 | 329.9 | 329.9 Mbytes
Step c_1 c_2 c_3 c_4 c_5 c_6 c_7 c_8 c_9 c_10 c_11 c_12 c_13 c_14 c_15 c_16 c_17 c_18 c_19 c_20 c_21 c_22 c_23 c_24 c_25 c_26 c_27 c_28 c_29 c_30 c_31 
     195            0 1.7169214e-21 1.8505067e-21 6.4735023e-26 7.0489612e-23 1.4987693e-21 1.3000844e-21 2.5918198e-22            0            0 7.1835279e-20 9.0583703e-22 4.9838957e-22 2.0800304e-22            0 7.224373e-21 3.9774078e-22 5.5593333e-20 3.2532094e-22 5.3074018e-21 2.8756856e-22 7.5317356e-21 5.8818742e-21            0 2.5776127e-21 8.874546e-22 5.0920058e-23 6.0082736e-22 4.3273429e-23 4.7984565e-24  6.58894e-22 
    1679 8.739514e-34 2.015483e-34 4.1474928e-33            0 2.8316025e-33 1.0931945e-32 6.1116177e-33 7.5690665e-33 6.8405579e-34            0 6.0756584e-31 6.1323336e-33 1.9239878e-33 4.5786422e-33            0 3.3447523e-32 2.9472662e-33 5.6134093e-31            0 4.9691798e-32 1.5748388e-33 7.2586735e-32 3.6963181e-32            0 2.7784318e-32 2.6934966e-33 2.0517358e-33 9.1365685e-33 1.1095514e-32 4.3158094e-37 5.6291102e-33 
Loop time of 87.2567 on 1 procs for 1483 steps with 42840 atoms

100.2% CPU use with 1 MPI tasks x no OpenMP threads

Minimization stats:
  Stopping criterion = trust region too small
  Energy initial, next-to-last, final = 
     1.42882814983e-18  1.11574527651e-14  1.19327467375e-29
  Force two-norm initial, final = 1.24393e-07 1.49883e-13
  Force max component initial, final = 3.6028e-08 2.06994e-14
  Final line search alpha, max atom move = 0 0
  Iterations, force evaluations = 1483 9278

MPI task timing breakdown:
Section |  min time  |  avg time  |  max time  |%varavg| %total
---------------------------------------------------------------
Pair    | 69.116     | 69.116     | 69.116     |   0.0 | 79.21
Neigh   | 0          | 0          | 0          |   0.0 |  0.00
Comm    | 8.9544     | 8.9544     | 8.9544     |   0.0 | 10.26
Output  | 0          | 0          | 0          |   0.0 |  0.00
Modify  | 0          | 0          | 0          |   0.0 |  0.00
Other   |            | 9.186      |            |       | 10.53

Nlocal:    42840 ave 42840 max 42840 min
Histogram: 1 0 0 0 0 0 0 0 0 0
Nghost:    45536 ave 45536 max 45536 min
Histogram: 1 0 0 0 0 0 0 0 0 0
Neighs:    2.26954e+06 ave 2.26954e+06 max 2.26954e+06 min
Histogram: 1 0 0 0 0 0 0 0 0 0

Total # of neighbors = 2269536
Ave neighs/atom = 52.977
Neighbor list builds = 0
Dangerous builds = 0
Total wall time: 0:01:34
  Force max component initial, final = 2.63591 3.6028e-08
  Final line search alpha, max atom move = 1 3.6028e-08
  Iterations, force evaluations = 195 303

MPI task timing breakdown:
Section |  min time  |  avg time  |  max time  |%varavg| %total
---------------------------------------------------------------
Pair    | 4.6255     | 4.6255     | 4.6255     |   0.0 | 72.19
Neigh   | 1.0786     | 1.0786     | 1.0786     |   0.0 | 16.83
Comm    | 0.29458    | 0.29458    | 0.29458    |   0.0 |  4.60
Output  | 0          | 0          | 0          |   0.0 |  0.00
Modify  | 0          | 0          | 0          |   0.0 |  0.00
Other   |            | 0.4085     |            |       |  6.38

Nlocal:    42840 ave 42840 max 42840 min
Histogram: 1 0 0 0 0 0 0 0 0 0
Nghost:    45639 ave 45639 max 45639 min
Histogram: 1 0 0 0 0 0 0 0 0 0
Neighs:    2.26607e+06 ave 2.26607e+06 max 2.26607e+06 min
Histogram: 1 0 0 0 0 0 0 0 0 0

Total # of neighbors = 2266073
Ave neighs/atom = 52.8962
Neighbor list builds = 5
Dangerous builds = 0
WARNING: Using 'neigh_modify every 1 delay 0 check yes' setting during minimization (../min.cpp:168)
Setting up hftn style minimization ...
  Unit style    : lj
  Current step  : 195
Per MPI rank memory allocation (min/avg/max) = 329.9 | 329.9 | 329.9 Mbytes
Step c_1 c_2 c_3 c_4 c_5 c_6 c_7 c_8 c_9 c_10 c_11 c_12 c_13 c_14 c_15 c_16 c_17 c_18 c_19 c_20 c_21 c_22 c_23 c_24 c_25 c_26 c_27 c_28 c_29 c_30 c_31 
     195            0 1.7169214e-21 1.8505067e-21 6.4735023e-26 7.0489612e-23 1.4987693e-21 1.3000844e-21 2.5918198e-22            0            0 7.1835279e-20 9.0583703e-22 4.9838957e-22 2.0800304e-22            0 7.224373e-21 3.9774078e-22 5.5593333e-20 3.2532094e-22 5.3074018e-21 2.8756856e-22 7.5317356e-21 5.8818742e-21            0 2.5776127e-21 8.874546e-22 5.0920058e-23 6.0082736e-22 4.3273429e-23 4.7984565e-24  6.58894e-22 
    1679 8.739514e-34 2.015483e-34 4.1474928e-33            0 2.8316025e-33 1.0931945e-32 6.1116177e-33 7.5690665e-33 6.8405579e-34            0 6.0756584e-31 6.1323336e-33 1.9239878e-33 4.5786422e-33            0 3.3447523e-32 2.9472662e-33 5.6134093e-31            0 4.9691798e-32 1.5748388e-33 7.2586735e-32 3.6963181e-32            0 2.7784318e-32 2.6934966e-33 2.0517358e-33 9.1365685e-33 1.1095514e-32 4.3158094e-37 5.6291102e-33 
Loop time of 87.3305 on 1 procs for 1483 steps with 42840 atoms

100.1% CPU use with 1 MPI tasks x no OpenMP threads

Minimization stats:
  Stopping criterion = trust region too small
  Energy initial, next-to-last, final = 
     1.42882814983e-18  1.11574527651e-14  1.19327467375e-29
  Force two-norm initial, final = 1.24393e-07 1.49883e-13
  Force max component initial, final = 3.6028e-08 2.06994e-14
  Final line search alpha, max atom move = 0 0
  Iterations, force evaluations = 1483 9278

MPI task timing breakdown:
Section |  min time  |  avg time  |  max time  |%varavg| %total
---------------------------------------------------------------
Pair    | 69.231     | 69.231     | 69.231     |   0.0 | 79.27
Neigh   | 0          | 0          | 0          |   0.0 |  0.00
Comm    | 8.9237     | 8.9237     | 8.9237     |   0.0 | 10.22
Output  | 0          | 0          | 0          |   0.0 |  0.00
Modify  | 0          | 0          | 0          |   0.0 |  0.00
Other   |            | 9.176      |            |       | 10.51

Nlocal:    42840 ave 42840 max 42840 min
Histogram: 1 0 0 0 0 0 0 0 0 0
Nghost:    45536 ave 45536 max 45536 min
Histogram: 1 0 0 0 0 0 0 0 0 0
Neighs:    2.26954e+06 ave 2.26954e+06 max 2.26954e+06 min
Histogram: 1 0 0 0 0 0 0 0 0 0

Total # of neighbors = 2269536
Ave neighs/atom = 52.977
Neighbor list builds = 0
Dangerous builds = 0
Total wall time: 0:01:34
  Force max component initial, final = 2.63591 3.6028e-08
  Final line search alpha, max atom move = 1 3.6028e-08
  Iterations, force evaluations = 195 303

MPI task timing breakdown:
Section |  min time  |  avg time  |  max time  |%varavg| %total
---------------------------------------------------------------
Pair    | 4.9422     | 4.9422     | 4.9422     |   0.0 | 72.19
Neigh   | 1.1573     | 1.1573     | 1.1573     |   0.0 | 16.90
Comm    | 0.31483    | 0.31483    | 0.31483    |   0.0 |  4.60
Output  | 0          | 0          | 0          |   0.0 |  0.00
Modify  | 0          | 0          | 0          |   0.0 |  0.00
Other   |            | 0.4317     |            |       |  6.31

Nlocal:    42840 ave 42840 max 42840 min
Histogram: 1 0 0 0 0 0 0 0 0 0
Nghost:    45639 ave 45639 max 45639 min
Histogram: 1 0 0 0 0 0 0 0 0 0
Neighs:    2.26607e+06 ave 2.26607e+06 max 2.26607e+06 min
Histogram: 1 0 0 0 0 0 0 0 0 0

Total # of neighbors = 2266073
Ave neighs/atom = 52.8962
Neighbor list builds = 5
Dangerous builds = 0
WARNING: Using 'neigh_modify every 1 delay 0 check yes' setting during minimization (../min.cpp:168)
Setting up hftn style minimization ...
  Unit style    : lj
  Current step  : 195
Per MPI rank memory allocation (min/avg/max) = 329.9 | 329.9 | 329.9 Mbytes
Step c_1 c_2 c_3 c_4 c_5 c_6 c_7 c_8 c_9 c_10 c_11 c_12 c_13 c_14 c_15 c_16 c_17 c_18 c_19 c_20 c_21 c_22 c_23 c_24 c_25 c_26 c_27 c_28 c_29 c_30 c_31 
     195            0 1.7169214e-21 1.8505067e-21 6.4735023e-26 7.0489612e-23 1.4987693e-21 1.3000844e-21 2.5918198e-22            0            0 7.1835279e-20 9.0583703e-22 4.9838957e-22 2.0800304e-22            0 7.224373e-21 3.9774078e-22 5.5593333e-20 3.2532094e-22 5.3074018e-21 2.8756856e-22 7.5317356e-21 5.8818742e-21            0 2.5776127e-21 8.874546e-22 5.0920058e-23 6.0082736e-22 4.3273429e-23 4.7984565e-24  6.58894e-22 
    1679 8.739514e-34 2.015483e-34 4.1474928e-33            0 2.8316025e-33 1.0931945e-32 6.1116177e-33 7.5690665e-33 6.8405579e-34            0 6.0756584e-31 6.1323336e-33 1.9239878e-33 4.5786422e-33            0 3.3447523e-32 2.9472662e-33 5.6134093e-31            0 4.9691798e-32 1.5748388e-33 7.2586735e-32 3.6963181e-32            0 2.7784318e-32 2.6934966e-33 2.0517358e-33 9.1365685e-33 1.1095514e-32 4.3158094e-37 5.6291102e-33 
Loop time of 89.776 on 1 procs for 1483 steps with 42840 atoms

100.2% CPU use with 1 MPI tasks x no OpenMP threads

Minimization stats:
  Stopping criterion = trust region too small
  Energy initial, next-to-last, final = 
     1.42882814983e-18  1.11574527651e-14  1.19327467375e-29
  Force two-norm initial, final = 1.24393e-07 1.49883e-13
  Force max component initial, final = 3.6028e-08 2.06994e-14
  Final line search alpha, max atom move = 0 0
  Iterations, force evaluations = 1483 9278

MPI task timing breakdown:
Section |  min time  |  avg time  |  max time  |%varavg| %total
---------------------------------------------------------------
Pair    | 71.327     | 71.327     | 71.327     |   0.0 | 79.45
Neigh   | 0          | 0          | 0          |   0.0 |  0.00
Comm    | 9.1365     | 9.1365     | 9.1365     |   0.0 | 10.18
Output  | 0          | 0          | 0          |   0.0 |  0.00
Modify  | 0          | 0          | 0          |   0.0 |  0.00
Other   |            | 9.313      |            |       | 10.37

Nlocal:    42840 ave 42840 max 42840 min
Histogram: 1 0 0 0 0 0 0 0 0 0
Nghost:    45536 ave 45536 max 45536 min
Histogram: 1 0 0 0 0 0 0 0 0 0
Neighs:    2.26954e+06 ave 2.26954e+06 max 2.26954e+06 min
Histogram: 1 0 0 0 0 0 0 0 0 0

Total # of neighbors = 2269536
Ave neighs/atom = 52.977
Neighbor list builds = 0
Dangerous builds = 0
Total wall time: 0:01:37
  Force max component initial, final = 2.63591 3.6028e-08
  Final line search alpha, max atom move = 1 3.6028e-08
  Iterations, force evaluations = 195 303

MPI task timing breakdown:
Section |  min time  |  avg time  |  max time  |%varavg| %total
---------------------------------------------------------------
Pair    | 4.9437     | 4.9437     | 4.9437     |   0.0 | 72.22
Neigh   | 1.1543     | 1.1543     | 1.1543     |   0.0 | 16.86
Comm    | 0.31659    | 0.31659    | 0.31659    |   0.0 |  4.62
Output  | 0          | 0          | 0          |   0.0 |  0.00
Modify  | 0          | 0          | 0          |   0.0 |  0.00
Other   |            | 0.431      |            |       |  6.30

Nlocal:    42840 ave 42840 max 42840 min
Histogram: 1 0 0 0 0 0 0 0 0 0
Nghost:    45639 ave 45639 max 45639 min
Histogram: 1 0 0 0 0 0 0 0 0 0
Neighs:    2.26607e+06 ave 2.26607e+06 max 2.26607e+06 min
Histogram: 1 0 0 0 0 0 0 0 0 0

Total # of neighbors = 2266073
Ave neighs/atom = 52.8962
Neighbor list builds = 5
Dangerous builds = 0
WARNING: Using 'neigh_modify every 1 delay 0 check yes' setting during minimization (../min.cpp:168)
Setting up hftn style minimization ...
  Unit style    : lj
  Current step  : 195
Per MPI rank memory allocation (min/avg/max) = 329.9 | 329.9 | 329.9 Mbytes
Step c_1 c_2 c_3 c_4 c_5 c_6 c_7 c_8 c_9 c_10 c_11 c_12 c_13 c_14 c_15 c_16 c_17 c_18 c_19 c_20 c_21 c_22 c_23 c_24 c_25 c_26 c_27 c_28 c_29 c_30 c_31 
     195            0 1.7169214e-21 1.8505067e-21 6.4735023e-26 7.0489612e-23 1.4987693e-21 1.3000844e-21 2.5918198e-22            0            0 7.1835279e-20 9.0583703e-22 4.9838957e-22 2.0800304e-22            0 7.224373e-21 3.9774078e-22 5.5593333e-20 3.2532094e-22 5.3074018e-21 2.8756856e-22 7.5317356e-21 5.8818742e-21            0 2.5776127e-21 8.874546e-22 5.0920058e-23 6.0082736e-22 4.3273429e-23 4.7984565e-24  6.58894e-22 
    1679 8.739514e-34 2.015483e-34 4.1474928e-33            0 2.8316025e-33 1.0931945e-32 6.1116177e-33 7.5690665e-33 6.8405579e-34            0 6.0756584e-31 6.1323336e-33 1.9239878e-33 4.5786422e-33            0 3.3447523e-32 2.9472662e-33 5.6134093e-31            0 4.9691798e-32 1.5748388e-33 7.2586735e-32 3.6963181e-32            0 2.7784318e-32 2.6934966e-33 2.0517358e-33 9.1365685e-33 1.1095514e-32 4.3158094e-37 5.6291102e-33 
Loop time of 89.9545 on 1 procs for 1483 steps with 42840 atoms

100.2% CPU use with 1 MPI tasks x no OpenMP threads

Minimization stats:
  Stopping criterion = trust region too small
  Energy initial, next-to-last, final = 
     1.42882814983e-18  1.11574527651e-14  1.19327467375e-29
  Force two-norm initial, final = 1.24393e-07 1.49883e-13
  Force max component initial, final = 3.6028e-08 2.06994e-14
  Final line search alpha, max atom move = 0 0
  Iterations, force evaluations = 1483 9278

MPI task timing breakdown:
Section |  min time  |  avg time  |  max time  |%varavg| %total
---------------------------------------------------------------
Pair    | 71.285     | 71.285     | 71.285     |   0.0 | 79.25
Neigh   | 0          | 0          | 0          |   0.0 |  0.00
Comm    | 9.2674     | 9.2674     | 9.2674     |   0.0 | 10.30
Output  | 0          | 0          | 0          |   0.0 |  0.00
Modify  | 0          | 0          | 0          |   0.0 |  0.00
Other   |            | 9.402      |            |       | 10.45

Nlocal:    42840 ave 42840 max 42840 min
Histogram: 1 0 0 0 0 0 0 0 0 0
Nghost:    45536 ave 45536 max 45536 min
Histogram: 1 0 0 0 0 0 0 0 0 0
Neighs:    2.26954e+06 ave 2.26954e+06 max 2.26954e+06 min
Histogram: 1 0 0 0 0 0 0 0 0 0

Total # of neighbors = 2269536
Ave neighs/atom = 52.977
Neighbor list builds = 0
Dangerous builds = 0
Total wall time: 0:01:37
