LAMMPS (11 Aug 2017)
Created orthogonal box = (0 0 0) to (34.2153 34.2153 34.2153)
  2 by 1 by 2 MPI processor grid
Created 1071 atoms
Created 1071 atoms
Created 1071 atoms
Created 1071 atoms
Created 1071 atoms
Created 1071 atoms
Created 1071 atoms
Created 1071 atoms
Created 1071 atoms
Created 1071 atoms
Created 1071 atoms
Created 1071 atoms
Created 1071 atoms
Created 1071 atoms
Created 1071 atoms
Created 1071 atoms
Created 1071 atoms
Created 1071 atoms
Created 1071 atoms
Created 1071 atoms
Created 1071 atoms
Created 1071 atoms
Created 1071 atoms
Created 1071 atoms
Created 1071 atoms
Created 1071 atoms
Created 1071 atoms
Created 1071 atoms
Created 1071 atoms
Created 1071 atoms
Created 1071 atoms
Created 1071 atoms
Created 1071 atoms
Created 1071 atoms
Created 1071 atoms
Created 1071 atoms
Created 1071 atoms
Created 1071 atoms
Created 1071 atoms
Created 1071 atoms
1071 atoms in group 1
1071 atoms in group 2
1071 atoms in group 3
1071 atoms in group 4
1071 atoms in group 5
1071 atoms in group 6
1071 atoms in group 7
1071 atoms in group 8
1071 atoms in group 9
1071 atoms in group 10
1071 atoms in group 11
1071 atoms in group 12
1071 atoms in group 13
1071 atoms in group 14
1071 atoms in group 15
1071 atoms in group 16
1071 atoms in group 17
1071 atoms in group 18
1071 atoms in group 19
1071 atoms in group 20
1071 atoms in group 21
1071 atoms in group 22
1071 atoms in group 23
1071 atoms in group 24
1071 atoms in group 25
1071 atoms in group 26
1071 atoms in group 27
1071 atoms in group 28
1071 atoms in group 29
1071 atoms in group 30
1071 atoms in group 31
WARNING: Using 'neigh_modify every 1 delay 0 check yes' setting during minimization (../min.cpp:168)
Neighbor list info ...
  update every 1 steps, delay 0 steps, check yes
  max neighbors/atom: 2000, page size: 100000
  master list distance cutoff = 5
  ghost atom cutoff = 5
  binsize = 2.5, bins = 14 14 14
  32 neighbor lists, perpetual/occasional/extra = 1 31 0
  (1) pair dpd, perpetual
      attributes: half, newton on
      pair build: half/bin/atomonly/newton
      stencil: half/bin/3d/newton
      bin: standard
  (2) compute group/group, occasional, copy from (1)
      attributes: half, newton on
      pair build: copy
      stencil: none
      bin: none
  (3) compute group/group, occasional, copy from (1)
      attributes: half, newton on
      pair build: copy
      stencil: none
      bin: none
  (4) compute group/group, occasional, copy from (1)
      attributes: half, newton on
      pair build: copy
      stencil: none
      bin: none
  (5) compute group/group, occasional, copy from (1)
      attributes: half, newton on
      pair build: copy
      stencil: none
      bin: none
  (6) compute group/group, occasional, copy from (1)
      attributes: half, newton on
      pair build: copy
      stencil: none
      bin: none
  (7) compute group/group, occasional, copy from (1)
      attributes: half, newton on
      pair build: copy
      stencil: none
      bin: none
  (8) compute group/group, occasional, copy from (1)
      attributes: half, newton on
      pair build: copy
      stencil: none
      bin: none
  (9) compute group/group, occasional, copy from (1)
      attributes: half, newton on
      pair build: copy
      stencil: none
      bin: none
  (10) compute group/group, occasional, copy from (1)
      attributes: half, newton on
      pair build: copy
      stencil: none
      bin: none
  (11) compute group/group, occasional, copy from (1)
      attributes: half, newton on
      pair build: copy
      stencil: none
      bin: none
  (12) compute group/group, occasional, copy from (1)
      attributes: half, newton on
      pair build: copy
      stencil: none
      bin: none
  (13) compute group/group, occasional, copy from (1)
      attributes: half, newton on
      pair build: copy
      stencil: none
      bin: none
  (14) compute group/group, occasional, copy from (1)
      attributes: half, newton on
      pair build: copy
      stencil: none
      bin: none
  (15) compute group/group, occasional, copy from (1)
      attributes: half, newton on
      pair build: copy
      stencil: none
      bin: none
  (16) compute group/group, occasional, copy from (1)
      attributes: half, newton on
      pair build: copy
      stencil: none
      bin: none
  (17) compute group/group, occasional, copy from (1)
      attributes: half, newton on
      pair build: copy
      stencil: none
      bin: none
  (18) compute group/group, occasional, copy from (1)
      attributes: half, newton on
      pair build: copy
      stencil: none
      bin: none
  (19) compute group/group, occasional, copy from (1)
      attributes: half, newton on
      pair build: copy
      stencil: none
      bin: none
  (20) compute group/group, occasional, copy from (1)
      attributes: half, newton on
      pair build: copy
      stencil: none
      bin: none
  (21) compute group/group, occasional, copy from (1)
      attributes: half, newton on
      pair build: copy
      stencil: none
      bin: none
  (22) compute group/group, occasional, copy from (1)
      attributes: half, newton on
      pair build: copy
      stencil: none
      bin: none
  (23) compute group/group, occasional, copy from (1)
      attributes: half, newton on
      pair build: copy
      stencil: none
      bin: none
  (24) compute group/group, occasional, copy from (1)
      attributes: half, newton on
      pair build: copy
      stencil: none
      bin: none
  (25) compute group/group, occasional, copy from (1)
      attributes: half, newton on
      pair build: copy
      stencil: none
      bin: none
  (26) compute group/group, occasional, copy from (1)
      attributes: half, newton on
      pair build: copy
      stencil: none
      bin: none
  (27) compute group/group, occasional, copy from (1)
      attributes: half, newton on
      pair build: copy
      stencil: none
      bin: none
  (28) compute group/group, occasional, copy from (1)
      attributes: half, newton on
      pair build: copy
      stencil: none
      bin: none
  (29) compute group/group, occasional, copy from (1)
      attributes: half, newton on
      pair build: copy
      stencil: none
      bin: none
  (30) compute group/group, occasional, copy from (1)
      attributes: half, newton on
      pair build: copy
      stencil: none
      bin: none
  (31) compute group/group, occasional, copy from (1)
      attributes: half, newton on
      pair build: copy
      stencil: none
      bin: none
  (32) compute group/group, occasional, copy from (1)
      attributes: half, newton on
      pair build: copy
      stencil: none
      bin: none
Setting up cg style minimization ...
  Unit style    : lj
  Current step  : 0
Per MPI rank memory allocation (min/avg/max) = 16.33 | 16.61 | 16.71 Mbytes
Step c_1 c_2 c_3 c_4 c_5 c_6 c_7 c_8 c_9 c_10 c_11 c_12 c_13 c_14 c_15 c_16 c_17 c_18 c_19 c_20 c_21 c_22 c_23 c_24 c_25 c_26 c_27 c_28 c_29 c_30 c_31 
       0 0.0059129753 0.0055777626 0.0055242409  0.005777953 0.0057932428 0.0057671618 0.0055187157 0.0061872884 0.0054343914 0.0055581682 0.0059795918 0.0056423173  0.005956507 0.0054085215 0.0056615028 0.0055459095 0.0057249777 0.0056276641 0.0057982267 0.0055980689 0.0055511509 0.0055207421 0.0053371684 0.0053583629  0.005740094  0.005904714 0.0054003935 0.0057786296 0.0057345075 0.0056759256 0.0053718457 
   50040 1.8546672e-09 1.8250582e-09 1.4759225e-09 1.4823119e-09 1.6418777e-09 1.5712285e-09 1.472957e-09 1.9037699e-09 1.5831521e-09 2.0643015e-09 1.597238e-09 1.8863306e-09 1.8365286e-09 1.5370613e-09 1.8080773e-09 2.0033521e-09 1.9928628e-09 1.8863481e-09 2.6341094e-09 1.7783456e-09 1.7330367e-09 1.6252126e-09 1.9859389e-09 1.5530316e-09 1.7911996e-09 1.9502811e-09 1.7471353e-09 1.9198841e-09 1.6803918e-09 1.8209344e-09 1.8295017e-09 
Loop time of 958.628 on 4 procs for 50040 steps with 42840 atoms

87.3% CPU use with 4 MPI tasks x no OpenMP threads

Minimization stats:
  Stopping criterion = max force evaluations
  Energy initial, next-to-last, final = 
        0.336473623285  1.29591731545e-07   1.2958692727e-07
  Force two-norm initial, final = 178.147 0.000811864
  Force max component initial, final = 2.8657 0.000189688
  Final line search alpha, max atom move = 1 0.000189688
  Iterations, force evaluations = 50040 100001

MPI task timing breakdown:
Section |  min time  |  avg time  |  max time  |%varavg| %total
---------------------------------------------------------------
Pair    | 782.09     | 794.88     | 808.09     |  32.8 | 82.92
Neigh   | 1.413      | 1.4595     | 1.5621     |   4.9 |  0.15
Comm    | 105.71     | 118.67     | 131.26     |  83.4 | 12.38
Output  | 0          | 0          | 0          |   0.0 |  0.00
Modify  | 0          | 0          | 0          |   0.0 |  0.00
Other   |            | 43.62      |            |       |  4.55

Nlocal:    10710 ave 10732 max 10677 min
Histogram: 1 0 0 0 0 1 0 0 1 1
Nghost:    24042.8 ave 24068 max 23996 min
Histogram: 1 0 0 0 0 0 1 0 0 2
Neighs:    709522 ave 724935 max 697178 min
Histogram: 1 0 1 0 0 1 0 0 0 1

Total # of neighbors = 2838088
Ave neighs/atom = 66.2486
Neighbor list builds = 17
Dangerous builds = 0
WARNING: Using 'neigh_modify every 1 delay 0 check yes' setting during minimization (../min.cpp:168)
Setting up hftn style minimization ...
  Unit style    : lj
  Current step  : 50040
Per MPI rank memory allocation (min/avg/max) = 115.8 | 115.8 | 115.8 Mbytes
Step c_1 c_2 c_3 c_4 c_5 c_6 c_7 c_8 c_9 c_10 c_11 c_12 c_13 c_14 c_15 c_16 c_17 c_18 c_19 c_20 c_21 c_22 c_23 c_24 c_25 c_26 c_27 c_28 c_29 c_30 c_31 
   50040 1.8546672e-09 1.8250582e-09 1.4759225e-09 1.4823119e-09 1.6418777e-09 1.5712285e-09 1.4576481e-09 1.9037699e-09 1.5831521e-09 2.0643015e-09 1.597238e-09 1.8863306e-09 1.8365286e-09 1.5370613e-09 1.8080773e-09 2.0033521e-09 1.9928628e-09 1.8826778e-09 2.6004758e-09 1.7783456e-09 1.7330367e-09 1.6252126e-09 1.9859389e-09 1.5530316e-09 1.7911996e-09 1.9502811e-09 1.7471353e-09 1.9198008e-09 1.6781576e-09 1.8209344e-09 1.8236444e-09 
  167934 1.4883411e-09 1.5085734e-09 1.2174386e-09 1.1984059e-09 1.4673008e-09 1.3120302e-09 1.1449029e-09 1.5639189e-09 1.3261347e-09 1.5473565e-09 1.3201174e-09 1.4542229e-09 1.4873785e-09 1.2993864e-09 1.4908317e-09 1.5395006e-09 1.5859544e-09 1.4752718e-09 1.9252054e-09 1.5102035e-09 1.4169409e-09 1.3774875e-09 1.5435779e-09 1.2836732e-09 1.6222413e-09 1.5929343e-09 1.3743617e-09 1.5313996e-09 1.3892503e-09 1.5005308e-09 1.5011648e-09 
Loop time of 9879.7 on 4 procs for 117893 steps with 42840 atoms

87.3% CPU use with 4 MPI tasks x no OpenMP threads

Minimization stats:
  Stopping criterion = max force evaluations
  Energy initial, next-to-last, final = 
      1.2958692727e-07  1.05437852805e-07   1.0543774363e-07
  Force two-norm initial, final = 0.000811864 0.00010308
  Force max component initial, final = 0.000189688 2.75174e-05
  Final line search alpha, max atom move = 0 0
  Iterations, force evaluations = 117893 1000002

MPI task timing breakdown:
Section |  min time  |  avg time  |  max time  |%varavg| %total
---------------------------------------------------------------
Pair    | 8032.8     | 8148.4     | 8280.5     |  97.5 | 82.48
Neigh   | 0          | 0          | 0          |   0.0 |  0.00
Comm    | 1096.4     | 1226.7     | 1340.9     | 247.9 | 12.42
Output  | 0          | 0          | 0          |   0.0 |  0.00
Modify  | 0          | 0          | 0          |   0.0 |  0.00
Other   |            | 504.6      |            |       |  5.11

Nlocal:    10710 ave 10731 max 10680 min
Histogram: 1 0 0 0 1 0 0 0 0 2
Nghost:    24039.5 ave 24084 max 24003 min
Histogram: 1 0 0 1 1 0 0 0 0 1
Neighs:    709576 ave 725754 max 697328 min
Histogram: 1 0 1 0 0 1 0 0 0 1

Total # of neighbors = 2838304
Ave neighs/atom = 66.2536
Neighbor list builds = 0
Dangerous builds = 0
Total wall time: 3:00:38
