LAMMPS (11 Aug 2017)
Created orthogonal box = (0 0 0) to (34.4214 34.4214 34.4214)
  1 by 2 by 2 MPI processor grid
Created 1071 atoms
Created 1071 atoms
Created 1071 atoms
Created 1071 atoms
Created 1071 atoms
Created 1071 atoms
Created 1071 atoms
Created 1071 atoms
Created 1071 atoms
Created 1071 atoms
Created 1071 atoms
Created 1071 atoms
Created 1071 atoms
Created 1071 atoms
Created 1071 atoms
Created 1071 atoms
Created 1071 atoms
Created 1071 atoms
Created 1071 atoms
Created 1071 atoms
Created 1071 atoms
Created 1071 atoms
Created 1071 atoms
Created 1071 atoms
Created 1071 atoms
Created 1071 atoms
Created 1071 atoms
Created 1071 atoms
Created 1071 atoms
Created 1071 atoms
Created 1071 atoms
Created 1071 atoms
Created 1071 atoms
Created 1071 atoms
Created 1071 atoms
Created 1071 atoms
Created 1071 atoms
Created 1071 atoms
Created 1071 atoms
Created 1071 atoms
1071 atoms in group 1
1071 atoms in group 2
1071 atoms in group 3
1071 atoms in group 4
1071 atoms in group 5
1071 atoms in group 6
1071 atoms in group 7
1071 atoms in group 8
1071 atoms in group 9
1071 atoms in group 10
1071 atoms in group 11
1071 atoms in group 12
1071 atoms in group 13
1071 atoms in group 14
1071 atoms in group 15
1071 atoms in group 16
1071 atoms in group 17
1071 atoms in group 18
1071 atoms in group 19
1071 atoms in group 20
1071 atoms in group 21
1071 atoms in group 22
1071 atoms in group 23
1071 atoms in group 24
1071 atoms in group 25
1071 atoms in group 26
1071 atoms in group 27
1071 atoms in group 28
1071 atoms in group 29
1071 atoms in group 30
1071 atoms in group 31
WARNING: Using 'neigh_modify every 1 delay 0 check yes' setting during minimization (../min.cpp:168)
Neighbor list info ...
  update every 1 steps, delay 0 steps, check yes
  max neighbors/atom: 2000, page size: 100000
  master list distance cutoff = 5
  ghost atom cutoff = 5
  binsize = 2.5, bins = 14 14 14
  32 neighbor lists, perpetual/occasional/extra = 1 31 0
  (1) pair dpd, perpetual
      attributes: half, newton on
      pair build: half/bin/atomonly/newton
      stencil: half/bin/3d/newton
      bin: standard
  (2) compute group/group, occasional, copy from (1)
      attributes: half, newton on
      pair build: copy
      stencil: none
      bin: none
  (3) compute group/group, occasional, copy from (1)
      attributes: half, newton on
      pair build: copy
      stencil: none
      bin: none
  (4) compute group/group, occasional, copy from (1)
      attributes: half, newton on
      pair build: copy
      stencil: none
      bin: none
  (5) compute group/group, occasional, copy from (1)
      attributes: half, newton on
      pair build: copy
      stencil: none
      bin: none
  (6) compute group/group, occasional, copy from (1)
      attributes: half, newton on
      pair build: copy
      stencil: none
      bin: none
  (7) compute group/group, occasional, copy from (1)
      attributes: half, newton on
      pair build: copy
      stencil: none
      bin: none
  (8) compute group/group, occasional, copy from (1)
      attributes: half, newton on
      pair build: copy
      stencil: none
      bin: none
  (9) compute group/group, occasional, copy from (1)
      attributes: half, newton on
      pair build: copy
      stencil: none
      bin: none
  (10) compute group/group, occasional, copy from (1)
      attributes: half, newton on
      pair build: copy
      stencil: none
      bin: none
  (11) compute group/group, occasional, copy from (1)
      attributes: half, newton on
      pair build: copy
      stencil: none
      bin: none
  (12) compute group/group, occasional, copy from (1)
      attributes: half, newton on
      pair build: copy
      stencil: none
      bin: none
  (13) compute group/group, occasional, copy from (1)
      attributes: half, newton on
      pair build: copy
      stencil: none
      bin: none
  (14) compute group/group, occasional, copy from (1)
      attributes: half, newton on
      pair build: copy
      stencil: none
      bin: none
  (15) compute group/group, occasional, copy from (1)
      attributes: half, newton on
      pair build: copy
      stencil: none
      bin: none
  (16) compute group/group, occasional, copy from (1)
      attributes: half, newton on
      pair build: copy
      stencil: none
      bin: none
  (17) compute group/group, occasional, copy from (1)
      attributes: half, newton on
      pair build: copy
      stencil: none
      bin: none
  (18) compute group/group, occasional, copy from (1)
      attributes: half, newton on
      pair build: copy
      stencil: none
      bin: none
  (19) compute group/group, occasional, copy from (1)
      attributes: half, newton on
      pair build: copy
      stencil: none
      bin: none
  (20) compute group/group, occasional, copy from (1)
      attributes: half, newton on
      pair build: copy
      stencil: none
      bin: none
  (21) compute group/group, occasional, copy from (1)
      attributes: half, newton on
      pair build: copy
      stencil: none
      bin: none
  (22) compute group/group, occasional, copy from (1)
      attributes: half, newton on
      pair build: copy
      stencil: none
      bin: none
  (23) compute group/group, occasional, copy from (1)
      attributes: half, newton on
      pair build: copy
      stencil: none
      bin: none
  (24) compute group/group, occasional, copy from (1)
      attributes: half, newton on
      pair build: copy
      stencil: none
      bin: none
  (25) compute group/group, occasional, copy from (1)
      attributes: half, newton on
      pair build: copy
      stencil: none
      bin: none
  (26) compute group/group, occasional, copy from (1)
      attributes: half, newton on
      pair build: copy
      stencil: none
      bin: none
  (27) compute group/group, occasional, copy from (1)
      attributes: half, newton on
      pair build: copy
      stencil: none
      bin: none
  (28) compute group/group, occasional, copy from (1)
      attributes: half, newton on
      pair build: copy
      stencil: none
      bin: none
  (29) compute group/group, occasional, copy from (1)
      attributes: half, newton on
      pair build: copy
      stencil: none
      bin: none
  (30) compute group/group, occasional, copy from (1)
      attributes: half, newton on
      pair build: copy
      stencil: none
      bin: none
  (31) compute group/group, occasional, copy from (1)
      attributes: half, newton on
      pair build: copy
      stencil: none
      bin: none
  (32) compute group/group, occasional, copy from (1)
      attributes: half, newton on
      pair build: copy
      stencil: none
      bin: none
Setting up cg style minimization ...
  Unit style    : lj
  Current step  : 0
Per MPI rank memory allocation (min/avg/max) = 16.29 | 16.48 | 16.68 Mbytes
Step c_1 c_2 c_3 c_4 c_5 c_6 c_7 c_8 c_9 c_10 c_11 c_12 c_13 c_14 c_15 c_16 c_17 c_18 c_19 c_20 c_21 c_22 c_23 c_24 c_25 c_26 c_27 c_28 c_29 c_30 c_31 
       0 0.0059365866 0.0053310269  0.005674183  0.006117841 0.0054592113 0.0055834243 0.0054940272 0.0055371647 0.0054363717 0.0054671303 0.0055730239 0.0050139682 0.0055869562  0.005107425 0.0056388321 0.0059950544 0.0054252346 0.0053766137 0.0059650263 0.0052497922 0.0057255553 0.0056180992 0.0058461423 0.0051344364 0.0059694906 0.0055199126 0.0055551689 0.0054403982  0.005390906 0.0051374408 0.0057074426 
   15333 2.2453452e-18 2.0039735e-18 2.0108555e-18 1.8370603e-18 2.0475603e-18 2.3054803e-18 1.8213485e-18 1.7743656e-18 2.2200862e-18 1.6956549e-18 1.7055387e-18 2.0502068e-18 1.681332e-18 1.7285784e-18 1.7439495e-18 1.9476853e-18 1.9748759e-18 2.1766329e-18 1.9239368e-18 1.6714975e-18 1.7397413e-18 1.9274617e-18 2.322631e-18 1.7583309e-18 1.9427252e-18 1.7592987e-18 1.8069314e-18 2.0972442e-18 2.087789e-18 1.701022e-18 2.1787906e-18 
Loop time of 294.113 on 4 procs for 15333 steps with 42840 atoms

112.7% CPU use with 4 MPI tasks x no OpenMP threads

Minimization stats:
  Stopping criterion = energy tolerance
  Energy initial, next-to-last, final = 
        0.329581059802  1.30807799997e-16  1.30310747743e-16
  Force two-norm initial, final = 176.158 2.72249e-07
  Force max component initial, final = 2.85264 1.80842e-08
  Final line search alpha, max atom move = 1 1.80842e-08
  Iterations, force evaluations = 15333 30590

MPI task timing breakdown:
Section |  min time  |  avg time  |  max time  |%varavg| %total
---------------------------------------------------------------
Pair    | 227.29     | 235.49     | 244.04     |  38.8 | 80.07
Neigh   | 0.91158    | 0.91879    | 0.93264    |   0.9 |  0.31
Comm    | 34.26      | 42.814     | 51.026     |  91.1 | 14.56
Output  | 0          | 0          | 0          |   0.0 |  0.00
Modify  | 0          | 0          | 0          |   0.0 |  0.00
Other   |            | 14.89      |            |       |  5.06

Nlocal:    10710 ave 10734 max 10678 min
Histogram: 1 0 0 0 0 0 2 0 0 1
Nghost:    23855.8 ave 23887 max 23827 min
Histogram: 1 1 0 0 0 0 0 0 1 1
Neighs:    696192 ave 713649 max 676380 min
Histogram: 1 0 0 0 1 0 1 0 0 1

Total # of neighbors = 2784766
Ave neighs/atom = 65.0039
Neighbor list builds = 12
Dangerous builds = 0
WARNING: Using 'neigh_modify every 1 delay 0 check yes' setting during minimization (../min.cpp:168)
Setting up hftn style minimization ...
  Unit style    : lj
  Current step  : 15333
Per MPI rank memory allocation (min/avg/max) = 103.6 | 112.7 | 115.8 Mbytes
Step c_1 c_2 c_3 c_4 c_5 c_6 c_7 c_8 c_9 c_10 c_11 c_12 c_13 c_14 c_15 c_16 c_17 c_18 c_19 c_20 c_21 c_22 c_23 c_24 c_25 c_26 c_27 c_28 c_29 c_30 c_31 
   15333 2.2443315e-18 2.0039735e-18 2.0108555e-18 1.8370603e-18 2.0372094e-18 2.3054803e-18 1.8213485e-18 1.7743656e-18 2.2200862e-18 1.6956549e-18 1.7031555e-18 2.0502068e-18 1.6787582e-18 1.7263191e-18 1.738276e-18 1.9370521e-18 1.9748759e-18 2.1766329e-18 1.9239368e-18 1.6714975e-18 1.7397413e-18 1.9174199e-18 2.322631e-18 1.7583309e-18 1.9424328e-18 1.7592987e-18 1.8069314e-18 2.0935176e-18 2.087789e-18 1.701022e-18 2.1785641e-18 
  180048 6.8710524e-19 6.068546e-19 6.0365103e-19 5.6092202e-19 6.1966074e-19 6.9641969e-19 5.4905046e-19 5.4131844e-19 6.7505858e-19 5.1678926e-19 5.2086174e-19 6.2284954e-19 5.0949655e-19 5.2823038e-19 5.332343e-19 5.9082589e-19 6.0561105e-19 6.6694563e-19 5.8030087e-19 5.0932916e-19 5.2993684e-19 5.921247e-19 7.0869922e-19 5.4214972e-19 5.8526438e-19 5.3118957e-19 5.4735586e-19 6.3675132e-19 6.3663003e-19 5.1599587e-19 6.6670457e-19 
Loop time of 9006.62 on 4 procs for 164714 steps with 42840 atoms

112.9% CPU use with 4 MPI tasks x no OpenMP threads

Minimization stats:
  Stopping criterion = energy tolerance
  Energy initial, next-to-last, final = 
     1.30310747748e-16  5.43200964537e-17  3.95663700981e-17
  Force two-norm initial, final = 2.72249e-07 6.24671e-09
  Force max component initial, final = 1.80842e-08 6.6992e-10
  Final line search alpha, max atom move = 0 0
  Iterations, force evaluations = 164714 1000001

MPI task timing breakdown:
Section |  min time  |  avg time  |  max time  |%varavg| %total
---------------------------------------------------------------
Pair    | 6979.6     | 7210.9     | 7434       | 189.5 | 80.06
Neigh   | 0          | 0          | 0          |   0.0 |  0.00
Comm    | 1092.4     | 1315.7     | 1547.4     | 444.2 | 14.61
Output  | 0          | 0          | 0          |   0.0 |  0.00
Modify  | 0          | 0          | 0          |   0.0 |  0.00
Other   |            | 480.1      |            |       |  5.33

Nlocal:    10710 ave 10724 max 10700 min
Histogram: 1 1 0 0 0 1 0 0 0 1
Nghost:    23888.2 ave 23917 max 23858 min
Histogram: 1 0 1 0 0 0 0 1 0 1
Neighs:    696382 ave 713400 max 677998 min
Histogram: 1 0 0 0 1 0 1 0 0 1

Total # of neighbors = 2785526
Ave neighs/atom = 65.0216
Neighbor list builds = 0
Dangerous builds = 0
Total wall time: 2:35:01
